 Gaussian 16, Revision C.01,
 Gaussian 16:  ES64L-G16RevC.01  3-Jul-2019

 ----------------------------------------------------------------------
 #P PBEQIDH/gen Extralinks=L608 INT=(ultrafine) SCF=tight integral=NoXC
 Test
 ----------------------------------------------------------------------

 ------------------------------------------
 0_dimer DH-SVPD --> H C N Def2-SVPD --> Br
 ------------------------------------------
 Symbolic Z-matrix:
 Charge =  0 Multiplicity = 1

                         Standard orientation:
 ---------------------------------------------------------------------
 Center     Atomic      Atomic             Coordinates (Angstroms)
 Number     Number       Type             X           Y           Z
 ---------------------------------------------------------------------
      1          1           0        0.000000    0.000000    2.481626
      2         35           0        0.000000    0.000000    1.060842
      3          7           0        0.000000    0.000000   -2.174959
      4          6           0        0.000000    0.000000   -3.331310
      5          1           0        0.000000    0.000000   -4.398520
 ---------------------------------------------------------------------

 SCF Done:  E(RPBEQIDH) =  -2666.82609511     A.U. after   13 cycles
 E2(PBEQIDH) =    -0.2102831586D+00 E(PBEQIDH) =    -0.26670363782712D+04

 The electronic state is 1-SG.
 Alpha  occ. eigenvalues -- -487.16399 -64.10451 -57.64812 -57.64585 -57.64585
 Alpha  occ. eigenvalues --  -15.12151 -10.89489  -9.40000  -7.09747  -7.08737
 Alpha  occ. eigenvalues --   -7.08737  -2.98119  -2.97698  -2.97698  -2.96749
 Alpha  occ. eigenvalues --   -2.96749  -1.12450  -0.93105  -0.74729  -0.53846
 Alpha  occ. eigenvalues --   -0.50241  -0.46648  -0.46648  -0.37512  -0.37512
 Alpha virt. eigenvalues --    0.05974   0.07016   0.07016   0.07148   0.11413
 Alpha virt. eigenvalues --    0.14144   0.16547   0.16547   0.19387   0.19387
 Alpha virt. eigenvalues --    0.23465   0.26750   0.26750   0.31887   0.34030

 Mulliken charges:
               1
     1  H    0.204640
     2  Br  -0.203923
     3  N   -0.144119
     4  C   -0.163007
     5  H    0.306409
 Sum of Mulliken charges =  -0.00000

 Dipole moment (field-independent basis, Debye):
    X=              0.0000    Y=              0.0000    Z=             -2.7890  Tot=              2.7890
 Quadrupole moment (field-independent basis, Debye-Ang):
   XX=            -31.8305   YY=            -31.8305   ZZ=             -4.7903
   XY=              0.0000   XZ=              0.0000   YZ=              0.0000

 Normal termination of Gaussian 16 at Wed May 12 01:35:48 2021.
