 Gaussian 16, Revision C.01,
 Gaussian 16:  ES64L-G16RevC.01  3-Jul-2019

 ----------------------------------------------------------------------
 #P PBEQIDH/gen Extralinks=L608 INT=(ultrafine) SCF=tight integral=NoXC
 Test
 ----------------------------------------------------------------------

 ----------------------------------------------
 0_monomer_A DH-SVPD --> H C N Def2-SVPD --> Br
 ----------------------------------------------
 Symbolic Z-matrix:
 Charge =  0 Multiplicity = 1

                         Standard orientation:
 ---------------------------------------------------------------------
 Center     Atomic      Atomic             Coordinates (Angstroms)
 Number     Number       Type             X           Y           Z
 ---------------------------------------------------------------------
      1          1           0        0.000000    0.000000   -1.381318
      2         35           0        0.000000    0.000000    0.039466
 ---------------------------------------------------------------------

 SCF Done:  E(RPBEQIDH) =  -2573.73068492     A.U. after   11 cycles
 E2(PBEQIDH) =    -0.9289899776D-01 E(PBEQIDH) =    -0.25738235839171D+04

 The electronic state is 1-SG.
 Alpha  occ. eigenvalues -- -487.18441 -64.12523 -57.66879 -57.66659 -57.66659
 Alpha  occ. eigenvalues --   -9.42084  -7.11834  -7.10832  -7.10832  -3.00200
 Alpha  occ. eigenvalues --   -2.99785  -2.99785  -2.98846  -2.98846  -0.95209
 Alpha  occ. eigenvalues --   -0.54049  -0.39555  -0.39555
 Alpha virt. eigenvalues --    0.03789   0.11859   0.15299   0.15299   0.18960
 Alpha virt. eigenvalues --    0.24134   0.24134   0.29816   0.32204   0.32204
 Alpha virt. eigenvalues --    0.41013   0.41013   0.61465   0.70376   0.98022

 Mulliken charges:
               1
     1  H    0.216557
     2  Br  -0.216557
 Sum of Mulliken charges =  -0.00000

 Dipole moment (field-independent basis, Debye):
    X=              0.0000    Y=              0.0000    Z=             -0.9418  Tot=              0.9418
 Quadrupole moment (field-independent basis, Debye-Ang):
   XX=            -19.8868   YY=            -19.8868   ZZ=            -15.4813
   XY=              0.0000   XZ=              0.0000   YZ=              0.0000

 Normal termination of Gaussian 16 at Wed May 12 01:35:50 2021.
