 Gaussian 16, Revision C.01,
 Gaussian 16:  ES64L-G16RevC.01  3-Jul-2019

 ----------------------------------------------------------------------
 #P PBEQIDH/gen Extralinks=L608 INT=(ultrafine) SCF=tight integral=NoXC
 Test
 ----------------------------------------------------------------------

 ----------------------------------------------
 0_monomer_B DH-SVPD --> H C N Def2-SVPD --> Br
 ----------------------------------------------
 Symbolic Z-matrix:
 Charge =  0 Multiplicity = 1

                         Standard orientation:
 ---------------------------------------------------------------------
 Center     Atomic      Atomic             Coordinates (Angstroms)
 Number     Number       Type             X           Y           Z
 ---------------------------------------------------------------------
      1          7           0        0.000000    0.000000    0.653940
      2          6           0        0.000000    0.000000   -0.501433
      3          1           0        0.000000    0.000000   -1.568981
 ---------------------------------------------------------------------

 SCF Done:  E(RPBEQIDH) =  -93.0942978043     A.U. after   11 cycles
 E2(PBEQIDH) =    -0.1162669733D+00 E(PBEQIDH) =    -0.93210564777597D+02

 The electronic state is 1-SG.
 Alpha  occ. eigenvalues --  -15.11769 -10.89062  -1.12151  -0.74421  -0.51695
 Alpha  occ. eigenvalues --   -0.46335  -0.46335
 Alpha virt. eigenvalues --    0.07269   0.07349   0.07349   0.11962   0.19915
 Alpha virt. eigenvalues --    0.19915   0.26098   0.34258   0.63760   0.64871
 Alpha virt. eigenvalues --    0.64871   0.65640   0.67794   0.67794   0.80024

 Mulliken charges:
               1
     1  N   -0.162992
     2  C   -0.140969
     3  H    0.303962
 Sum of Mulliken charges =  -0.00000

 Dipole moment (field-independent basis, Debye):
    X=              0.0000    Y=              0.0000    Z=             -3.2981  Tot=              3.2981
 Quadrupole moment (field-independent basis, Debye-Ang):
   XX=            -11.9161   YY=            -11.9161   ZZ=             -9.6678
   XY=              0.0000   XZ=              0.0000   YZ=              0.0000

 Normal termination of Gaussian 16 at Wed May 12 01:35:52 2021.
