 Gaussian 16, Revision C.01,
 Gaussian 16:  ES64L-G16RevC.01  3-Jul-2019

 ------------------------------------------------------
 #P PBEQIDH/gen INT=ultrafine SCF=tight Extralinks=L608
 ------------------------------------------------------

 -------------------------------------------------
 0_dimer DH-SVPD --> Hydrogen Def2-SVPD --> Oxygen
 -------------------------------------------------
 Symbolic Z-matrix:
 Charge =  0 Multiplicity = 1

                         Standard orientation:
 ---------------------------------------------------------------------
 Center     Atomic      Atomic             Coordinates (Angstroms)
 Number     Number       Type             X           Y           Z
 ---------------------------------------------------------------------
      1          7           0       -0.000000    1.579406   -0.000000
      2          1           0       -0.200041    2.153655    0.809565
      3          1           0       -0.200041    2.153655   -0.809565
      4          1           0       -0.682976    0.829677    0.000000
      5          7           0       -0.000000   -1.579406   -0.000000
      6          1           0        0.200041   -2.153655    0.809565
      7          1           0        0.682976   -0.829677    0.000000
      8          1           0        0.200041   -2.153655   -0.809565
 ---------------------------------------------------------------------

 SCF Done:  E(RPBEQIDH) =  -112.726257836     A.U. after   10 cycles
 E2(PBEQIDH) =    -0.1530332413D+00 E(PBEQIDH) =    -0.11287929107732D+03

 The electronic state is 1-AG.
 Alpha  occ. eigenvalues --  -15.05547 -15.05545  -1.03163  -1.02411  -0.58719
 Alpha  occ. eigenvalues --   -0.57272  -0.57032  -0.55449  -0.37673  -0.37441
 Alpha virt. eigenvalues --    0.06878   0.08764   0.12738   0.13829   0.15385
 Alpha virt. eigenvalues --    0.15560   0.17137   0.18359   0.18881   0.19558
 Alpha virt. eigenvalues --    0.20054   0.20643   0.22886   0.26100   0.28037

 Mulliken charges:
               1
     1  N   -0.677160
     2  H    0.210306
     3  H    0.210306
     4  H    0.256549
     5  N   -0.677160
     6  H    0.210306
     7  H    0.256549
     8  H    0.210306
 Sum of Mulliken charges =   0.00000

 Dipole moment (field-independent basis, Debye):
    X=              0.0000    Y=             -0.0000    Z=             -0.0000  Tot=              0.0000
 Quadrupole moment (field-independent basis, Debye-Ang):
   XX=            -17.0577   YY=             -9.8739   ZZ=            -12.5329
   XY=             -3.4920   XZ=              0.0000   YZ=             -0.0000

 Normal termination of Gaussian 16 at Tue May 11 23:13:04 2021.
