 Gaussian 16, Revision C.01,
 Gaussian 16:  ES64L-G16RevC.01  3-Jul-2019

 ------------------------------------------------------
 #P PBEQIDH/gen INT=ultrafine SCF=tight Extralinks=L608
 ------------------------------------------------------

 -----------------------------------------------------
 0_monomer_A DH-SVPD --> Hydrogen Def2-SVPD --> Oxygen
 -----------------------------------------------------
 Symbolic Z-matrix:
 Charge =  0 Multiplicity = 1

                         Standard orientation:
 ---------------------------------------------------------------------
 Center     Atomic      Atomic             Coordinates (Angstroms)
 Number     Number       Type             X           Y           Z
 ---------------------------------------------------------------------
      1          7           0        0.000000    0.115414   -0.000000
      2          1           0       -0.469767   -0.270719    0.809565
      3          1           0       -0.469767   -0.270719   -0.809565
      4          1           0        0.939534   -0.266459   -0.000000
 ---------------------------------------------------------------------

 SCF Done:  E(RPBEQIDH) =  -56.3608554902     A.U. after   10 cycles
 E2(PBEQIDH) =    -0.7600268522D-01 E(PBEQIDH) =    -0.56436858175443D+02

 The electronic state is 1-A'.
 Alpha  occ. eigenvalues --  -15.06082  -1.03268  -0.57662  -0.57575  -0.37837
 Alpha virt. eigenvalues --    0.07235   0.13076   0.13108   0.17623   0.18530
 Alpha virt. eigenvalues --    0.18547   0.21339   0.21364   0.28702   0.30033
 Alpha virt. eigenvalues --    0.56511   0.56564   0.64228   0.79614   0.79690

 Mulliken charges:
               1
     1  N   -0.659994
     2  H    0.219569
     3  H    0.219569
     4  H    0.220856
 Sum of Mulliken charges =   0.00000

 Dipole moment (field-independent basis, Debye):
    X=              0.0015    Y=             -1.6206    Z=             -0.0000  Tot=              1.6206
 Quadrupole moment (field-independent basis, Debye-Ang):
   XX=             -6.2212   YY=             -9.2631   ZZ=             -6.2493
   XY=              0.0118   XZ=              0.0000   YZ=              0.0000

 Normal termination of Gaussian 16 at Tue May 11 23:13:06 2021.
